# Solver information
# Time        	p_rgh_solver  	p_rgh_initial 	p_rgh_final   	p_rgh_iters   	p_rgh_converged
1             	GAMG	1.000000e+00	3.231280e-03	2	true
2             	GAMG	1.839470e-01	7.675670e-04	2	true
3             	GAMG	1.210680e-01	1.092010e-03	2	true
4             	GAMG	8.155390e-02	2.253440e-04	3	true
5             	GAMG	6.895570e-02	2.198770e-04	3	true
6             	GAMG	5.996790e-02	2.245540e-04	3	true
7             	GAMG	5.213100e-02	2.372340e-04	3	true
8             	GAMG	4.545030e-02	2.524520e-04	3	true
9             	GAMG	3.957930e-02	2.689830e-04	3	true
10            	GAMG	3.637800e-02	2.854670e-04	3	true
11            	GAMG	3.562960e-02	3.009170e-04	3	true
12            	GAMG	3.552060e-02	3.143390e-04	3	true
13            	GAMG	3.446250e-02	3.219040e-04	3	true
14            	GAMG	3.253950e-02	3.207170e-04	3	true
15            	GAMG	3.045560e-02	7.369040e-05	4	true
16            	GAMG	2.842710e-02	7.269850e-05	4	true
17            	GAMG	2.659250e-02	7.282650e-05	4	true
18            	GAMG	2.480680e-02	7.278680e-05	4	true
19            	GAMG	2.315370e-02	7.263660e-05	4	true
20            	GAMG	2.227470e-02	7.242760e-05	4	true
21            	GAMG	2.145450e-02	7.215820e-05	4	true
22            	GAMG	2.063840e-02	7.191670e-05	4	true
23            	GAMG	1.983900e-02	7.184650e-05	4	true
24            	GAMG	1.905240e-02	7.133970e-05	4	true
25            	GAMG	1.829160e-02	7.091370e-05	4	true
26            	GAMG	1.758060e-02	7.080440e-05	4	true
27            	GAMG	1.686560e-02	7.028570e-05	4	true
28            	GAMG	1.619290e-02	6.981430e-05	4	true
29            	GAMG	1.554220e-02	6.931540e-05	4	true
30            	GAMG	1.492630e-02	6.884740e-05	4	true
31            	GAMG	1.455580e-02	6.822960e-05	4	true
32            	GAMG	1.421180e-02	6.799420e-05	4	true
33            	GAMG	1.389070e-02	6.587860e-05	4	true
34            	GAMG	1.354510e-02	6.575340e-05	4	true
35            	GAMG	1.312870e-02	6.409130e-05	4	true
36            	GAMG	1.269900e-02	6.348700e-05	4	true
37            	GAMG	1.231160e-02	6.226790e-05	4	true
38            	GAMG	1.194190e-02	6.102180e-05	4	true
39            	GAMG	1.158950e-02	5.990000e-05	4	true
40            	GAMG	1.125390e-02	5.901040e-05	4	true
41            	GAMG	1.092270e-02	5.777060e-05	4	true
42            	GAMG	1.061200e-02	5.661910e-05	4	true
43            	GAMG	1.031480e-02	5.537530e-05	4	true
44            	GAMG	1.008380e-02	5.435110e-05	4	true
45            	GAMG	9.907970e-03	5.307590e-05	4	true
46            	GAMG	9.745560e-03	5.174960e-05	4	true
47            	GAMG	9.616060e-03	5.051200e-05	4	true
48            	GAMG	9.510700e-03	4.912280e-05	4	true
49            	GAMG	9.398500e-03	4.804060e-05	4	true
50            	GAMG	9.294030e-03	4.311920e-05	4	true
51            	GAMG	9.194890e-03	4.222710e-05	4	true
52            	GAMG	9.093660e-03	4.067380e-05	4	true
53            	GAMG	8.993630e-03	3.948370e-05	4	true
54            	GAMG	8.902040e-03	3.819150e-05	4	true
55            	GAMG	8.810660e-03	3.669300e-05	4	true
56            	GAMG	8.727640e-03	3.499620e-05	4	true
57            	GAMG	8.654510e-03	3.377450e-05	4	true
58            	GAMG	8.592070e-03	3.236210e-05	4	true
59            	GAMG	8.572980e-03	3.092850e-05	4	true
60            	GAMG	8.550630e-03	2.965290e-05	4	true
61            	GAMG	8.545800e-03	2.801590e-05	4	true
62            	GAMG	8.528750e-03	2.643280e-05	4	true
63            	GAMG	8.526690e-03	2.490910e-05	4	true
64            	GAMG	8.517490e-03	2.399390e-05	4	true
65            	GAMG	8.495810e-03	2.154120e-05	4	true
66            	GAMG	8.482940e-03	2.018670e-05	4	true
67            	GAMG	8.456040e-03	8.279200e-05	3	true
68            	GAMG	8.462330e-03	7.877220e-05	3	true
69            	GAMG	8.471690e-03	7.507590e-05	3	true
70            	GAMG	8.507570e-03	7.147230e-05	3	true
71            	GAMG	8.557670e-03	6.751490e-05	3	true
72            	GAMG	8.613980e-03	6.525730e-05	3	true
73            	GAMG	8.681530e-03	6.180590e-05	3	true
74            	GAMG	8.755500e-03	5.809460e-05	3	true
75            	GAMG	8.835820e-03	5.572770e-05	3	true
76            	GAMG	8.882730e-03	5.206530e-05	3	true
77            	GAMG	8.986050e-03	4.908320e-05	3	true
78            	GAMG	9.059780e-03	4.669990e-05	3	true
79            	GAMG	9.172540e-03	4.447390e-05	3	true
80            	GAMG	9.288970e-03	4.195440e-05	3	true
81            	GAMG	9.373800e-03	4.017790e-05	3	true
82            	GAMG	9.483900e-03	3.820660e-05	3	true
83            	GAMG	9.605820e-03	3.666500e-05	3	true
84            	GAMG	9.717690e-03	3.505460e-05	3	true
85            	GAMG	9.827930e-03	3.349260e-05	3	true
86            	GAMG	9.949740e-03	3.239610e-05	3	true
87            	GAMG	1.009390e-02	3.077440e-05	3	true
88            	GAMG	1.021710e-02	3.010400e-05	3	true
89            	GAMG	1.034740e-02	2.957990e-05	3	true
90            	GAMG	1.048880e-02	2.905430e-05	3	true
91            	GAMG	1.060780e-02	2.882990e-05	3	true
92            	GAMG	1.073860e-02	2.869370e-05	3	true
93            	GAMG	1.086300e-02	2.847210e-05	3	true
94            	GAMG	1.098950e-02	2.813170e-05	3	true
95            	GAMG	1.110400e-02	2.863870e-05	3	true
96            	GAMG	1.122500e-02	2.876490e-05	3	true
97            	GAMG	1.134510e-02	2.908250e-05	3	true
98            	GAMG	1.146320e-02	2.935570e-05	3	true
99            	GAMG	1.157880e-02	3.002210e-05	3	true
100           	GAMG	1.168520e-02	3.014190e-05	3	true
101           	GAMG	1.179210e-02	3.082390e-05	3	true
102           	GAMG	1.193410e-02	3.107270e-05	3	true
103           	GAMG	1.204150e-02	3.174120e-05	3	true
104           	GAMG	1.211910e-02	3.208830e-05	3	true
105           	GAMG	1.212460e-02	3.405770e-05	3	true
106           	GAMG	1.213270e-02	3.530920e-05	3	true
107           	GAMG	1.218290e-02	3.659000e-05	3	true
108           	GAMG	1.221010e-02	3.726220e-05	3	true
109           	GAMG	1.225410e-02	3.772590e-05	3	true
110           	GAMG	1.229790e-02	3.819410e-05	3	true
111           	GAMG	1.230840e-02	3.935010e-05	3	true
112           	GAMG	1.227390e-02	3.935580e-05	3	true
113           	GAMG	1.219270e-02	3.859270e-05	3	true
114           	GAMG	1.214860e-02	3.785740e-05	3	true
115           	GAMG	1.204960e-02	3.777350e-05	3	true
116           	GAMG	1.197270e-02	3.771290e-05	3	true
117           	GAMG	1.185300e-02	3.601470e-05	3	true
118           	GAMG	1.169490e-02	3.412950e-05	3	true
119           	GAMG	1.156460e-02	3.302390e-05	3	true
120           	GAMG	1.148750e-02	3.170240e-05	3	true
121           	GAMG	1.133230e-02	3.031820e-05	3	true
122           	GAMG	1.120860e-02	2.888830e-05	3	true
123           	GAMG	1.107310e-02	2.810380e-05	3	true
124           	GAMG	1.093040e-02	2.695810e-05	3	true
125           	GAMG	1.072910e-02	2.638330e-05	3	true
126           	GAMG	1.051140e-02	2.554770e-05	3	true
127           	GAMG	1.025410e-02	2.461000e-05	3	true
128           	GAMG	9.970260e-03	2.381180e-05	3	true
129           	GAMG	9.664870e-03	2.297960e-05	3	true
130           	GAMG	9.397980e-03	2.004940e-05	3	true
131           	GAMG	9.164600e-03	9.125310e-05	2	true
132           	GAMG	8.935500e-03	8.597980e-05	2	true
133           	GAMG	8.680720e-03	8.328430e-05	2	true
134           	GAMG	8.464820e-03	8.086240e-05	2	true
135           	GAMG	8.251690e-03	8.021720e-05	2	true
136           	GAMG	8.096130e-03	7.867950e-05	2	true
137           	GAMG	7.914990e-03	7.678730e-05	2	true
138           	GAMG	7.727420e-03	7.523560e-05	2	true
139           	GAMG	7.606950e-03	7.439370e-05	2	true
140           	GAMG	7.512160e-03	7.404190e-05	2	true
141           	GAMG	7.386950e-03	1.274490e-05	3	true
142           	GAMG	7.288570e-03	1.249200e-05	3	true
143           	GAMG	7.202730e-03	1.215750e-05	3	true
144           	GAMG	7.130370e-03	1.203830e-05	3	true
145           	GAMG	7.109700e-03	1.227410e-05	3	true
146           	GAMG	7.050680e-03	1.343080e-05	3	true
147           	GAMG	7.002140e-03	1.382280e-05	3	true
148           	GAMG	6.981570e-03	1.402440e-05	3	true
149           	GAMG	6.972690e-03	1.448020e-05	3	true
150           	GAMG	6.986510e-03	1.489130e-05	3	true
151           	GAMG	6.985760e-03	1.520790e-05	3	true
152           	GAMG	7.005170e-03	1.533790e-05	3	true
153           	GAMG	6.982240e-03	1.639050e-05	3	true
154           	GAMG	6.980300e-03	1.720590e-05	3	true
155           	GAMG	7.050100e-03	1.764330e-05	3	true
156           	GAMG	7.078420e-03	1.820940e-05	3	true
157           	GAMG	7.164470e-03	1.857120e-05	3	true
158           	GAMG	7.245440e-03	1.885420e-05	3	true
159           	GAMG	7.317320e-03	1.948040e-05	3	true
160           	GAMG	7.323750e-03	1.999790e-05	3	true
161           	GAMG	7.321600e-03	1.993340e-05	3	true
162           	GAMG	7.343690e-03	1.995500e-05	3	true
163           	GAMG	7.368880e-03	1.962410e-05	3	true
164           	GAMG	7.351990e-03	1.926850e-05	3	true
165           	GAMG	7.345190e-03	1.895180e-05	3	true
166           	GAMG	7.355400e-03	1.849040e-05	3	true
167           	GAMG	7.348990e-03	1.754620e-05	3	true
168           	GAMG	7.371010e-03	1.697110e-05	3	true
169           	GAMG	7.363840e-03	1.657740e-05	3	true
170           	GAMG	7.371060e-03	1.588120e-05	3	true
171           	GAMG	7.361610e-03	1.568850e-05	3	true
172           	GAMG	7.335300e-03	1.554200e-05	3	true
173           	GAMG	7.316980e-03	1.504510e-05	3	true
174           	GAMG	7.253380e-03	1.507620e-05	3	true
175           	GAMG	7.145450e-03	1.477440e-05	3	true
176           	GAMG	6.997610e-03	1.477920e-05	3	true
177           	GAMG	6.909690e-03	1.521580e-05	3	true
178           	GAMG	6.822950e-03	1.522920e-05	3	true
179           	GAMG	6.734000e-03	1.489540e-05	3	true
180           	GAMG	6.668740e-03	1.480110e-05	3	true
181           	GAMG	6.596480e-03	1.469740e-05	3	true
182           	GAMG	6.527420e-03	1.417340e-05	3	true
183           	GAMG	6.476240e-03	1.383550e-05	3	true
184           	GAMG	6.412840e-03	1.414070e-05	3	true
185           	GAMG	6.380100e-03	1.430030e-05	3	true
186           	GAMG	6.341210e-03	1.414360e-05	3	true
187           	GAMG	6.271990e-03	1.474110e-05	3	true
188           	GAMG	6.251710e-03	1.482850e-05	3	true
189           	GAMG	6.207190e-03	1.517890e-05	3	true
190           	GAMG	6.171410e-03	1.511930e-05	3	true
191           	GAMG	6.199020e-03	1.564200e-05	3	true
192           	GAMG	6.188870e-03	1.568300e-05	3	true
193           	GAMG	6.161460e-03	1.592910e-05	3	true
194           	GAMG	6.150000e-03	1.598740e-05	3	true
195           	GAMG	6.153090e-03	1.546050e-05	3	true
196           	GAMG	6.128230e-03	1.510840e-05	3	true
197           	GAMG	6.085050e-03	1.453830e-05	3	true
198           	GAMG	6.114970e-03	1.401720e-05	3	true
199           	GAMG	6.107620e-03	6.035920e-05	2	true
200           	GAMG	6.059480e-03	5.917190e-05	2	true
201           	GAMG	6.030200e-03	5.832720e-05	2	true
202           	GAMG	6.026010e-03	5.698190e-05	2	true
203           	GAMG	5.981980e-03	5.611490e-05	2	true
204           	GAMG	5.947290e-03	5.459760e-05	2	true
205           	GAMG	5.941250e-03	5.314580e-05	2	true
206           	GAMG	5.880710e-03	5.202760e-05	2	true
207           	GAMG	5.824530e-03	5.110380e-05	2	true
208           	GAMG	5.770760e-03	5.073340e-05	2	true
209           	GAMG	5.672670e-03	5.030490e-05	2	true
210           	GAMG	5.591240e-03	4.971320e-05	2	true
211           	GAMG	5.513920e-03	4.834920e-05	2	true
212           	GAMG	5.397210e-03	4.805410e-05	2	true
213           	GAMG	5.296250e-03	4.758850e-05	2	true
214           	GAMG	5.204110e-03	4.740860e-05	2	true
215           	GAMG	5.128860e-03	4.687700e-05	2	true
216           	GAMG	5.056100e-03	4.694860e-05	2	true
217           	GAMG	5.000000e-03	4.690170e-05	2	true
218           	GAMG	4.933380e-03	4.704730e-05	2	true
219           	GAMG	4.890560e-03	4.688200e-05	2	true
220           	GAMG	4.863100e-03	4.661060e-05	2	true
221           	GAMG	4.803270e-03	4.520270e-05	2	true
222           	GAMG	4.821770e-03	4.510700e-05	2	true
223           	GAMG	4.749420e-03	4.581380e-05	2	true
224           	GAMG	4.725970e-03	4.610810e-05	2	true
225           	GAMG	4.719350e-03	9.737330e-06	3	true
226           	GAMG	4.732550e-03	1.011160e-05	3	true
227           	GAMG	4.734370e-03	1.009600e-05	3	true
228           	GAMG	4.754080e-03	1.045060e-05	3	true
229           	GAMG	4.765130e-03	1.055380e-05	3	true
230           	GAMG	4.783810e-03	1.080660e-05	3	true
231           	GAMG	4.803630e-03	1.091500e-05	3	true
232           	GAMG	4.837740e-03	1.110600e-05	3	true
233           	GAMG	4.849270e-03	1.168450e-05	3	true
234           	GAMG	4.864840e-03	1.200540e-05	3	true
235           	GAMG	4.908150e-03	1.248900e-05	3	true
236           	GAMG	4.922270e-03	1.284270e-05	3	true
237           	GAMG	4.925770e-03	1.268150e-05	3	true
238           	GAMG	4.952220e-03	1.290860e-05	3	true
239           	GAMG	4.978310e-03	1.329860e-05	3	true
240           	GAMG	4.991820e-03	1.358060e-05	3	true
241           	GAMG	5.000000e-03	1.395080e-05	3	true
242           	GAMG	5.005590e-03	1.401440e-05	3	true
243           	GAMG	5.002320e-03	1.381130e-05	3	true
244           	GAMG	4.964320e-03	1.338040e-05	3	true
245           	GAMG	4.961340e-03	1.341870e-05	3	true
246           	GAMG	4.981060e-03	1.356300e-05	3	true
247           	GAMG	4.941030e-03	1.357610e-05	3	true
248           	GAMG	4.924840e-03	1.341000e-05	3	true
249           	GAMG	4.920790e-03	1.344380e-05	3	true
250           	GAMG	4.924900e-03	1.330540e-05	3	true
251           	GAMG	4.911570e-03	1.342880e-05	3	true
252           	GAMG	4.910290e-03	1.332380e-05	3	true
253           	GAMG	4.879690e-03	1.331360e-05	3	true
254           	GAMG	4.860040e-03	1.311580e-05	3	true
255           	GAMG	4.805320e-03	1.347350e-05	3	true
256           	GAMG	4.769520e-03	1.348610e-05	3	true
257           	GAMG	4.740580e-03	1.312250e-05	3	true
258           	GAMG	4.695420e-03	1.357410e-05	3	true
259           	GAMG	4.652630e-03	1.363200e-05	3	true
260           	GAMG	4.620870e-03	1.356460e-05	3	true
261           	GAMG	4.571130e-03	1.364820e-05	3	true
262           	GAMG	4.537450e-03	1.378410e-05	3	true
263           	GAMG	4.507040e-03	1.375130e-05	3	true
264           	GAMG	4.499200e-03	1.380710e-05	3	true
265           	GAMG	4.500930e-03	1.390640e-05	3	true
266           	GAMG	4.486560e-03	1.418870e-05	3	true
267           	GAMG	4.443910e-03	1.442980e-05	3	true
268           	GAMG	4.413080e-03	1.424770e-05	3	true
269           	GAMG	4.423720e-03	1.429090e-05	3	true
270           	GAMG	4.416700e-03	1.402300e-05	3	true
271           	GAMG	4.414970e-03	1.379050e-05	3	true
272           	GAMG	4.376470e-03	1.404130e-05	3	true
273           	GAMG	4.342240e-03	1.356720e-05	3	true
274           	GAMG	4.302190e-03	1.323060e-05	3	true
275           	GAMG	4.279250e-03	1.247860e-05	3	true
276           	GAMG	4.247180e-03	1.190120e-05	3	true
277           	GAMG	4.222140e-03	1.152500e-05	3	true
278           	GAMG	4.186850e-03	1.108680e-05	3	true
279           	GAMG	4.117080e-03	4.081970e-05	2	true
280           	GAMG	4.050150e-03	3.748560e-05	2	true
281           	GAMG	3.964310e-03	3.571670e-05	2	true
282           	GAMG	3.863700e-03	3.362140e-05	2	true
283           	GAMG	3.731950e-03	3.220170e-05	2	true
284           	GAMG	3.553010e-03	3.066500e-05	2	true
285           	GAMG	3.391260e-03	2.890160e-05	2	true
286           	GAMG	3.223870e-03	2.660150e-05	2	true
287           	GAMG	3.082870e-03	2.455450e-05	2	true
288           	GAMG	2.953580e-03	2.263370e-05	2	true
289           	GAMG	2.815740e-03	2.148760e-05	2	true
290           	GAMG	2.708840e-03	1.995020e-05	2	true
291           	GAMG	2.598080e-03	1.857690e-05	2	true
292           	GAMG	2.515680e-03	1.667900e-05	2	true
293           	GAMG	2.421700e-03	1.448930e-05	2	true
294           	GAMG	2.307370e-03	1.320030e-05	2	true
295           	GAMG	2.228450e-03	1.198150e-05	2	true
296           	GAMG	2.144890e-03	1.115150e-05	2	true
297           	GAMG	2.067990e-03	1.050590e-05	2	true
298           	GAMG	2.001750e-03	1.005600e-05	2	true
299           	GAMG	1.944030e-03	9.859500e-06	2	true
300           	GAMG	1.885750e-03	9.660630e-06	2	true
301           	GAMG	1.833370e-03	9.839210e-06	2	true
302           	GAMG	1.773790e-03	1.012630e-05	2	true
303           	GAMG	1.718740e-03	1.021630e-05	2	true
304           	GAMG	1.675420e-03	1.038430e-05	2	true
305           	GAMG	1.643010e-03	1.085990e-05	2	true
306           	GAMG	1.614170e-03	1.154300e-05	2	true
307           	GAMG	1.577810e-03	1.191060e-05	2	true
308           	GAMG	1.551240e-03	1.227460e-05	2	true
309           	GAMG	1.520910e-03	1.246420e-05	2	true
310           	GAMG	1.493930e-03	1.264460e-05	2	true
311           	GAMG	1.468080e-03	1.288960e-05	2	true
312           	GAMG	1.431440e-03	1.296640e-05	2	true
313           	GAMG	1.397570e-03	1.303550e-05	2	true
314           	GAMG	1.367390e-03	1.298650e-05	2	true
315           	GAMG	1.339990e-03	1.298570e-05	2	true
316           	GAMG	1.308370e-03	1.279640e-05	2	true
317           	GAMG	1.279710e-03	1.260140e-05	2	true
318           	GAMG	1.253180e-03	1.244600e-05	2	true
319           	GAMG	1.222320e-03	1.220750e-05	2	true
320           	GAMG	1.200160e-03	1.199090e-05	2	true
321           	GAMG	1.171690e-03	1.163370e-05	2	true
322           	GAMG	1.147150e-03	1.131900e-05	2	true
323           	GAMG	1.113590e-03	1.094850e-05	2	true
324           	GAMG	1.083010e-03	1.056060e-05	2	true
325           	GAMG	1.053510e-03	1.018280e-05	2	true
326           	GAMG	1.021490e-03	9.789770e-06	2	true
327           	GAMG	9.904170e-04	9.311470e-06	2	true
328           	GAMG	9.590070e-04	8.854910e-06	2	true
329           	GAMG	9.263700e-04	8.457100e-06	2	true
330           	GAMG	8.946540e-04	8.073290e-06	2	true
331           	GAMG	8.622950e-04	7.660890e-06	2	true
332           	GAMG	8.320920e-04	7.233460e-06	2	true
333           	GAMG	8.015770e-04	6.805240e-06	2	true
334           	GAMG	7.711540e-04	6.433900e-06	2	true
335           	GAMG	7.435460e-04	6.042830e-06	2	true
336           	GAMG	7.180010e-04	5.662320e-06	2	true
337           	GAMG	6.929120e-04	5.275250e-06	2	true
338           	GAMG	6.687390e-04	4.915160e-06	2	true
339           	GAMG	6.424280e-04	4.591960e-06	2	true
340           	GAMG	6.205330e-04	4.309390e-06	2	true
341           	GAMG	6.014430e-04	4.034960e-06	2	true
342           	GAMG	5.814020e-04	3.805510e-06	2	true
343           	GAMG	5.605650e-04	3.559460e-06	2	true
344           	GAMG	5.473980e-04	3.323310e-06	2	true
345           	GAMG	5.328930e-04	3.166070e-06	2	true
346           	GAMG	5.175480e-04	3.055390e-06	2	true
347           	GAMG	5.039020e-04	2.910900e-06	2	true
348           	GAMG	4.910390e-04	2.797080e-06	2	true
349           	GAMG	4.797080e-04	2.721430e-06	2	true
350           	GAMG	4.704680e-04	2.663450e-06	2	true
351           	GAMG	4.626000e-04	2.624480e-06	2	true
352           	GAMG	4.562800e-04	2.605840e-06	2	true
353           	GAMG	4.505130e-04	2.605340e-06	2	true
354           	GAMG	4.459630e-04	2.626590e-06	2	true
355           	GAMG	4.400380e-04	2.649710e-06	2	true
356           	GAMG	4.344110e-04	2.684720e-06	2	true
357           	GAMG	4.294570e-04	2.718990e-06	2	true
358           	GAMG	4.241080e-04	2.755640e-06	2	true
359           	GAMG	4.202830e-04	2.820210e-06	2	true
360           	GAMG	4.153530e-04	2.852510e-06	2	true
361           	GAMG	4.120020e-04	2.886300e-06	2	true
362           	GAMG	4.076620e-04	2.913270e-06	2	true
363           	GAMG	4.031190e-04	2.911170e-06	2	true
364           	GAMG	3.978630e-04	2.897700e-06	2	true
365           	GAMG	3.919280e-04	2.899610e-06	2	true
366           	GAMG	3.869020e-04	2.879320e-06	2	true
367           	GAMG	3.811450e-04	2.859780e-06	2	true
368           	GAMG	3.748490e-04	2.811200e-06	2	true
369           	GAMG	3.713350e-04	2.800930e-06	2	true
370           	GAMG	3.632530e-04	2.711340e-06	2	true
371           	GAMG	3.567840e-04	2.576740e-06	2	true
372           	GAMG	3.503310e-04	2.504080e-06	2	true
373           	GAMG	3.430010e-04	2.422210e-06	2	true
374           	GAMG	3.357550e-04	2.341940e-06	2	true
375           	GAMG	3.309250e-04	2.262100e-06	2	true
376           	GAMG	3.198590e-04	2.186650e-06	2	true
377           	GAMG	3.133190e-04	2.104510e-06	2	true
378           	GAMG	3.055430e-04	2.030690e-06	2	true
379           	GAMG	2.986370e-04	1.952080e-06	2	true
380           	GAMG	2.921380e-04	1.875580e-06	2	true
381           	GAMG	2.859040e-04	1.804960e-06	2	true
382           	GAMG	2.799650e-04	1.733520e-06	2	true
383           	GAMG	2.741440e-04	1.666210e-06	2	true
384           	GAMG	2.680290e-04	1.591930e-06	2	true
385           	GAMG	2.625340e-04	1.526420e-06	2	true
386           	GAMG	2.571290e-04	1.471370e-06	2	true
387           	GAMG	2.518210e-04	1.426870e-06	2	true
388           	GAMG	2.461650e-04	1.348860e-06	2	true
389           	GAMG	2.391050e-04	1.299610e-06	2	true
390           	GAMG	2.329610e-04	1.280880e-06	2	true
391           	GAMG	2.274980e-04	1.257830e-06	2	true
392           	GAMG	2.214040e-04	1.238600e-06	2	true
393           	GAMG	2.167020e-04	1.224460e-06	2	true
394           	GAMG	2.101790e-04	1.208820e-06	2	true
395           	GAMG	2.046100e-04	1.201330e-06	2	true
396           	GAMG	1.990060e-04	1.195790e-06	2	true
397           	GAMG	1.944660e-04	1.168160e-06	2	true
398           	GAMG	1.900610e-04	1.171640e-06	2	true
399           	GAMG	1.858370e-04	1.177870e-06	2	true
400           	GAMG	1.819920e-04	1.179390e-06	2	true
401           	GAMG	1.782610e-04	1.185830e-06	2	true
402           	GAMG	1.748630e-04	1.195100e-06	2	true
403           	GAMG	1.717580e-04	1.207370e-06	2	true
404           	GAMG	1.690110e-04	1.220690e-06	2	true
405           	GAMG	1.666120e-04	1.233490e-06	2	true
406           	GAMG	1.645100e-04	1.243630e-06	2	true
407           	GAMG	1.625470e-04	1.251320e-06	2	true
408           	GAMG	1.607320e-04	1.256760e-06	2	true
409           	GAMG	1.590290e-04	1.258760e-06	2	true
410           	GAMG	1.587360e-04	1.235040e-06	2	true
411           	GAMG	1.562150e-04	1.239820e-06	2	true
412           	GAMG	1.542100e-04	1.235980e-06	2	true
413           	GAMG	1.525280e-04	1.226030e-06	2	true
414           	GAMG	1.508280e-04	1.215540e-06	2	true
415           	GAMG	1.492490e-04	1.200750e-06	2	true
416           	GAMG	1.476990e-04	1.182860e-06	2	true
417           	GAMG	1.464910e-04	1.159770e-06	2	true
418           	GAMG	1.449430e-04	1.141810e-06	2	true
419           	GAMG	1.431570e-04	1.103270e-06	2	true
420           	GAMG	1.423280e-04	1.075310e-06	2	true
421           	GAMG	1.404840e-04	1.047670e-06	2	true
422           	GAMG	1.388710e-04	1.019410e-06	2	true
423           	GAMG	1.371440e-04	9.902920e-07	2	true
424           	GAMG	1.357240e-04	9.554370e-07	2	true
425           	GAMG	1.342480e-04	9.218890e-07	2	true
426           	GAMG	1.328170e-04	8.877310e-07	2	true
427           	GAMG	1.314350e-04	8.533350e-07	2	true
428           	GAMG	1.300580e-04	8.187320e-07	2	true
429           	GAMG	1.286630e-04	7.841390e-07	2	true
430           	GAMG	1.272450e-04	7.499420e-07	2	true
431           	GAMG	1.258580e-04	7.161010e-07	2	true
432           	GAMG	1.244910e-04	6.820500e-07	2	true
433           	GAMG	1.231510e-04	6.497860e-07	2	true
434           	GAMG	1.218120e-04	6.179960e-07	2	true
435           	GAMG	1.205210e-04	5.762900e-07	2	true
436           	GAMG	1.193430e-04	5.510300e-07	2	true
437           	GAMG	1.180750e-04	5.219850e-07	2	true
438           	GAMG	1.168650e-04	4.943470e-07	2	true
439           	GAMG	1.158330e-04	4.679770e-07	2	true
440           	GAMG	1.147820e-04	4.453040e-07	2	true
441           	GAMG	1.137630e-04	4.218550e-07	2	true
442           	GAMG	1.129290e-04	4.019940e-07	2	true
443           	GAMG	1.121680e-04	3.831480e-07	2	true
444           	GAMG	1.113290e-04	3.674520e-07	2	true
445           	GAMG	1.105750e-04	3.526390e-07	2	true
446           	GAMG	1.094030e-04	3.430730e-07	2	true
447           	GAMG	1.086980e-04	3.278590e-07	2	true
448           	GAMG	1.081370e-04	3.156140e-07	2	true
449           	GAMG	1.075180e-04	3.054260e-07	2	true
450           	GAMG	1.068400e-04	2.963000e-07	2	true
451           	GAMG	1.064760e-04	2.882330e-07	2	true
452           	GAMG	1.056160e-04	2.807080e-07	2	true
453           	GAMG	1.050410e-04	2.741200e-07	2	true
454           	GAMG	1.044000e-04	2.682440e-07	2	true
455           	GAMG	1.037860e-04	2.630800e-07	2	true
456           	GAMG	1.031650e-04	2.584100e-07	2	true
457           	GAMG	1.037730e-04	2.340010e-07	2	true
458           	GAMG	1.017090e-04	2.535190e-07	2	true
459           	GAMG	1.017350e-04	2.359580e-07	2	true
460           	GAMG	1.007620e-04	2.396790e-07	2	true
461           	GAMG	1.002740e-04	2.338450e-07	2	true
462           	GAMG	9.955390e-05	2.328010e-07	2	true
463           	GAMG	9.891890e-05	2.298530e-07	2	true
464           	GAMG	9.844870e-05	2.257250e-07	2	true
465           	GAMG	9.776460e-05	2.234430e-07	2	true
466           	GAMG	9.694100e-05	2.227340e-07	2	true
467           	GAMG	9.637250e-05	2.197360e-07	2	true
468           	GAMG	9.576210e-05	2.182750e-07	2	true
469           	GAMG	9.496910e-05	2.164610e-07	2	true
470           	GAMG	9.445700e-05	2.150080e-07	2	true
471           	GAMG	9.363570e-05	2.125730e-07	2	true
472           	GAMG	9.290850e-05	2.121230e-07	2	true
473           	GAMG	9.226940e-05	2.108660e-07	2	true
474           	GAMG	9.163210e-05	2.099180e-07	2	true
475           	GAMG	9.099700e-05	2.091090e-07	2	true
476           	GAMG	9.037040e-05	2.084040e-07	2	true
477           	GAMG	8.975300e-05	2.078010e-07	2	true
478           	GAMG	8.914320e-05	2.072830e-07	2	true
479           	GAMG	8.854570e-05	2.068700e-07	2	true
480           	GAMG	8.797560e-05	2.065330e-07	2	true
481           	GAMG	8.745230e-05	2.062790e-07	2	true
482           	GAMG	8.696850e-05	2.061890e-07	2	true
483           	GAMG	8.656210e-05	2.066420e-07	2	true
484           	GAMG	8.637200e-05	2.087480e-07	2	true
485           	GAMG	8.572430e-05	2.040160e-07	2	true
486           	GAMG	8.548430e-05	2.041500e-07	2	true
487           	GAMG	8.452590e-05	2.061300e-07	2	true
488           	GAMG	8.401690e-05	2.068620e-07	2	true
489           	GAMG	8.359960e-05	2.072700e-07	2	true
490           	GAMG	8.322520e-05	2.076790e-07	2	true
491           	GAMG	8.301400e-05	2.081960e-07	2	true
492           	GAMG	8.290420e-05	2.068320e-07	2	true
493           	GAMG	8.240620e-05	2.075160e-07	2	true
494           	GAMG	8.212450e-05	2.075210e-07	2	true
495           	GAMG	8.186900e-05	2.073010e-07	2	true
496           	GAMG	8.162440e-05	2.071480e-07	2	true
497           	GAMG	8.124640e-05	2.067940e-07	2	true
498           	GAMG	8.103410e-05	2.063860e-07	2	true
499           	GAMG	8.085640e-05	2.059070e-07	2	true
500           	GAMG	8.066400e-05	2.054170e-07	2	true
501           	GAMG	8.052360e-05	2.051320e-07	2	true
502           	GAMG	8.071220e-05	2.035910e-07	2	true
503           	GAMG	8.117990e-05	2.032410e-07	2	true
504           	GAMG	8.001000e-05	2.030400e-07	2	true
505           	GAMG	8.031790e-05	2.015250e-07	2	true
506           	GAMG	7.994180e-05	2.006450e-07	2	true
507           	GAMG	8.006230e-05	1.996010e-07	2	true
508           	GAMG	8.005610e-05	1.986270e-07	2	true
509           	GAMG	7.950590e-05	1.970320e-07	2	true
510           	GAMG	7.932670e-05	1.956530e-07	2	true
511           	GAMG	7.914070e-05	1.942450e-07	2	true
512           	GAMG	7.908640e-05	1.930890e-07	2	true
513           	GAMG	7.881810e-05	1.912150e-07	2	true
514           	GAMG	7.896740e-05	1.890790e-07	2	true
515           	GAMG	7.861070e-05	1.884160e-07	2	true
516           	GAMG	7.824780e-05	1.863640e-07	2	true
517           	GAMG	7.818310e-05	1.843280e-07	2	true
518           	GAMG	7.814500e-05	1.823200e-07	2	true
519           	GAMG	7.811550e-05	1.807370e-07	2	true
520           	GAMG	7.783050e-05	1.794810e-07	2	true
521           	GAMG	7.755480e-05	1.777280e-07	2	true
522           	GAMG	7.734220e-05	1.759040e-07	2	true
523           	GAMG	7.783370e-05	1.768980e-07	2	true
524           	GAMG	7.738030e-05	1.738980e-07	2	true
525           	GAMG	7.732600e-05	1.722640e-07	2	true
526           	GAMG	7.697980e-05	1.705260e-07	2	true
527           	GAMG	7.683130e-05	1.690520e-07	2	true
528           	GAMG	7.669890e-05	1.676330e-07	2	true
529           	GAMG	7.657590e-05	1.669650e-07	2	true
530           	GAMG	7.646890e-05	1.656700e-07	2	true
531           	GAMG	7.636720e-05	1.643320e-07	2	true
532           	GAMG	7.563460e-05	1.610270e-07	2	true
533           	GAMG	7.547990e-05	1.593050e-07	2	true
534           	GAMG	7.537270e-05	1.579290e-07	2	true
535           	GAMG	7.517350e-05	1.568050e-07	2	true
536           	GAMG	7.499260e-05	1.556340e-07	2	true
537           	GAMG	7.481650e-05	1.544920e-07	2	true
538           	GAMG	7.464060e-05	1.533880e-07	2	true
539           	GAMG	7.446440e-05	1.523270e-07	2	true
540           	GAMG	7.429250e-05	1.513060e-07	2	true
541           	GAMG	7.411890e-05	1.500800e-07	2	true
542           	GAMG	7.394770e-05	1.490560e-07	2	true
543           	GAMG	7.378510e-05	1.481430e-07	2	true
544           	GAMG	7.362790e-05	1.472860e-07	2	true
545           	GAMG	7.350550e-05	1.464170e-07	2	true
546           	GAMG	7.342340e-05	1.456110e-07	2	true
547           	GAMG	7.315750e-05	1.447910e-07	2	true
548           	GAMG	7.305920e-05	1.440850e-07	2	true
549           	GAMG	7.287350e-05	1.433750e-07	2	true
550           	GAMG	7.274000e-05	1.427390e-07	2	true
551           	GAMG	7.258730e-05	1.421470e-07	2	true
552           	GAMG	7.245730e-05	1.416370e-07	2	true
553           	GAMG	7.233310e-05	1.412890e-07	2	true
554           	GAMG	7.226030e-05	1.418540e-07	2	true
555           	GAMG	7.227030e-05	1.420030e-07	2	true
556           	GAMG	7.192200e-05	1.404740e-07	2	true
557           	GAMG	7.185560e-05	1.374660e-07	2	true
558           	GAMG	7.200070e-05	1.372120e-07	2	true
559           	GAMG	7.180970e-05	1.362350e-07	2	true
560           	GAMG	7.136860e-05	1.358630e-07	2	true
561           	GAMG	7.097430e-05	1.363260e-07	2	true
562           	GAMG	7.086400e-05	1.360550e-07	2	true
563           	GAMG	7.066930e-05	1.356550e-07	2	true