# Solver information
# Time        	p_rgh_solver  	p_rgh_initial 	p_rgh_final   	p_rgh_iters   	p_rgh_converged
0.5           	GAMG	1.000000e+00	5.239840e-03	6	true
1             	GAMG	6.628690e-01	3.321620e-03	4	true
1.5           	GAMG	4.280060e-01	1.806170e-03	3	true
2             	GAMG	4.106520e-01	1.895730e-03	3	true
2.5           	GAMG	3.571400e-01	3.103730e-03	2	true
3             	GAMG	3.525400e-01	2.914190e-03	2	true
3.5           	GAMG	3.273170e-01	2.857600e-03	2	true
4             	GAMG	3.358040e-01	2.129620e-03	2	true
4.5           	GAMG	3.187860e-01	2.716320e-03	2	true
5             	GAMG	3.173530e-01	1.906350e-03	2	true
5.5           	GAMG	3.034060e-01	2.282660e-03	2	true
6             	GAMG	2.958960e-01	1.736070e-03	2	true
6.5           	GAMG	2.829550e-01	1.661640e-03	2	true
7             	GAMG	2.682810e-01	1.494080e-03	2	true
7.5           	GAMG	2.541630e-01	1.142480e-03	2	true
8             	GAMG	2.434430e-01	1.224260e-03	2	true
8.5           	GAMG	2.322520e-01	8.990360e-04	2	true
9             	GAMG	2.252800e-01	1.114830e-03	2	true
9.5           	GAMG	2.172780e-01	8.098160e-04	2	true
10            	GAMG	2.128940e-01	1.176220e-03	2	true
10.5          	GAMG	2.063770e-01	1.040330e-03	2	true
11            	GAMG	2.002020e-01	1.279370e-03	2	true
11.5          	GAMG	1.910900e-01	1.793230e-03	2	true
12            	GAMG	1.829630e-01	8.452010e-04	3	true
12.5          	GAMG	1.814120e-01	1.455070e-03	3	true
13            	GAMG	1.933160e-01	1.301820e-03	3	true
13.5          	GAMG	2.027400e-01	1.671230e-03	3	true
14            	GAMG	2.128140e-01	8.077190e-04	4	true
14.5          	GAMG	2.097940e-01	1.848260e-03	3	true
15            	GAMG	2.087520e-01	1.373380e-03	3	true
15.5          	GAMG	2.091520e-01	1.119840e-03	3	true
16            	GAMG	1.998730e-01	1.125010e-03	3	true
16.5          	GAMG	1.997950e-01	1.035580e-03	3	true
17            	GAMG	1.911120e-01	1.298990e-03	3	true
17.5          	GAMG	2.108820e-01	1.233680e-03	3	true
18            	GAMG	2.021700e-01	9.875800e-04	3	true
18.5          	GAMG	2.033160e-01	1.716910e-03	2	true
19            	GAMG	1.916560e-01	1.392950e-03	2	true
19.5          	GAMG	1.950910e-01	1.187910e-03	2	true
20            	GAMG	1.762850e-01	1.178460e-03	2	true
20.5          	GAMG	1.801840e-01	8.704680e-04	2	true
21            	GAMG	1.586400e-01	8.099390e-04	2	true
21.5          	GAMG	1.576750e-01	7.782030e-04	2	true
22            	GAMG	1.464570e-01	6.701500e-04	2	true
22.5          	GAMG	1.500740e-01	6.457640e-04	2	true
23            	GAMG	1.385510e-01	5.858870e-04	2	true
23.5          	GAMG	1.400850e-01	6.148060e-04	2	true
24            	GAMG	1.343670e-01	1.223570e-03	1	true
24.5          	GAMG	1.400920e-01	9.454650e-04	1	true
25            	GAMG	1.302180e-01	8.558380e-04	1	true
25.5          	GAMG	1.332200e-01	1.031170e-03	1	true
26            	GAMG	1.277020e-01	9.858920e-04	1	true
26.5          	GAMG	1.333190e-01	1.045300e-03	1	true
27            	GAMG	1.257360e-01	1.145560e-03	1	true
27.5          	GAMG	1.276580e-01	1.209350e-03	1	true
28            	GAMG	1.244880e-01	3.394390e-04	2	true
28.5          	GAMG	1.301600e-01	3.151390e-04	2	true
29            	GAMG	1.229650e-01	3.665390e-04	2	true
29.5          	GAMG	1.250240e-01	3.394350e-04	2	true
30            	GAMG	1.229840e-01	3.921080e-04	2	true
30.5          	GAMG	1.278280e-01	3.640630e-04	2	true
31            	GAMG	1.220030e-01	3.967200e-04	2	true
31.5          	GAMG	1.247030e-01	3.888250e-04	2	true
32            	GAMG	1.231610e-01	4.189120e-04	2	true
32.5          	GAMG	1.287320e-01	4.057720e-04	2	true
33            	GAMG	1.218470e-01	4.413390e-04	2	true
33.5          	GAMG	1.244810e-01	5.642500e-04	2	true
34            	GAMG	1.230440e-01	6.812440e-04	2	true
34.5          	GAMG	1.284510e-01	8.267080e-04	2	true
35            	GAMG	1.228230e-01	9.802850e-04	2	true
35.5          	GAMG	1.264250e-01	1.217720e-03	2	true
36            	GAMG	1.281010e-01	5.374700e-04	3	true
36.5          	GAMG	1.300630e-01	5.838680e-04	3	true
37            	GAMG	1.243080e-01	5.302310e-04	3	true
37.5          	GAMG	1.218330e-01	4.854830e-04	3	true
38            	GAMG	1.175340e-01	1.173190e-03	2	true
38.5          	GAMG	1.133170e-01	9.715270e-04	2	true
39            	GAMG	1.109910e-01	9.306630e-04	2	true
39.5          	GAMG	1.097460e-01	8.398770e-04	2	true
40            	GAMG	1.047180e-01	7.416850e-04	2	true
40.5          	GAMG	1.037810e-01	6.532160e-04	2	true
41            	GAMG	1.010600e-01	5.908870e-04	2	true
41.5          	GAMG	9.990520e-02	5.561780e-04	2	true
42            	GAMG	9.793730e-02	5.126480e-04	2	true
42.5          	GAMG	9.707680e-02	5.225780e-04	2	true
43            	GAMG	9.606630e-02	5.019160e-04	2	true
43.5          	GAMG	9.693830e-02	4.852080e-04	2	true
44            	GAMG	9.678490e-02	4.525870e-04	2	true
44.5          	GAMG	9.910480e-02	4.727100e-04	2	true
45            	GAMG	9.958250e-02	4.406040e-04	2	true
45.5          	GAMG	1.002930e-01	4.498960e-04	2	true
46            	GAMG	1.008050e-01	4.568730e-04	2	true
46.5          	GAMG	1.015390e-01	4.548170e-04	2	true
47            	GAMG	1.018900e-01	4.746310e-04	2	true
47.5          	GAMG	1.017190e-01	4.831640e-04	2	true
48            	GAMG	1.021350e-01	5.282980e-04	2	true
48.5          	GAMG	1.018490e-01	5.720310e-04	2	true
49            	GAMG	1.019640e-01	6.219910e-04	2	true
49.5          	GAMG	1.007960e-01	6.446690e-04	2	true
50            	GAMG	1.009550e-01	6.928680e-04	2	true
50.5          	GAMG	9.928720e-02	7.286350e-04	2	true
51            	GAMG	9.992070e-02	8.198430e-04	2	true
51.5          	GAMG	9.921560e-02	8.812200e-04	2	true
52            	GAMG	9.974000e-02	8.790660e-04	2	true
52.5          	GAMG	1.000820e-01	8.794160e-04	2	true
53            	GAMG	9.940560e-02	9.245950e-04	2	true
53.5          	GAMG	1.014490e-01	9.902510e-04	2	true
54            	GAMG	1.029620e-01	4.215200e-04	3	true
54.5          	GAMG	1.062770e-01	4.806790e-04	3	true
55            	GAMG	1.050000e-01	4.809270e-04	3	true
55.5          	GAMG	1.055910e-01	4.287790e-04	3	true
56            	GAMG	1.017490e-01	3.701300e-04	3	true
56.5          	GAMG	9.831340e-02	3.598770e-04	3	true
57            	GAMG	9.450570e-02	4.053760e-04	3	true
57.5          	GAMG	9.607500e-02	4.527070e-04	3	true
58            	GAMG	9.803910e-02	4.945780e-04	3	true
58.5          	GAMG	1.000400e-01	4.368430e-04	3	true
59            	GAMG	9.910600e-02	4.275940e-04	3	true
59.5          	GAMG	9.966040e-02	9.772020e-04	2	true
60            	GAMG	1.001770e-01	7.196370e-04	2	true
60.5          	GAMG	1.015410e-01	7.230450e-04	2	true
61            	GAMG	1.038510e-01	7.370130e-04	2	true
61.5          	GAMG	1.058640e-01	7.201270e-04	2	true
62            	GAMG	1.081130e-01	7.355990e-04	2	true
62.5          	GAMG	1.110370e-01	7.860780e-04	2	true
63            	GAMG	1.142020e-01	8.556220e-04	2	true
63.5          	GAMG	1.174080e-01	9.271180e-04	2	true
64            	GAMG	1.219190e-01	1.002640e-03	2	true
64.5          	GAMG	1.244900e-01	1.109330e-03	2	true
65            	GAMG	1.306280e-01	1.150650e-03	2	true
65.5          	GAMG	1.324730e-01	1.219380e-03	2	true
66            	GAMG	1.368380e-01	1.121480e-03	2	true
66.5          	GAMG	1.422690e-01	1.147160e-03	2	true
67            	GAMG	1.509760e-01	1.432270e-03	2	true
67.5          	GAMG	1.588560e-01	1.312090e-03	2	true
68            	GAMG	1.712240e-01	1.657780e-03	2	true
68.5          	GAMG	1.833820e-01	7.841600e-04	3	true
69            	GAMG	1.927850e-01	8.820000e-04	3	true
69.5          	GAMG	2.096150e-01	1.089440e-03	3	true
70            	GAMG	2.265600e-01	1.158440e-03	3	true
70.5          	GAMG	2.141330e-01	7.331960e-04	3	true
71            	GAMG	2.248060e-01	7.737440e-04	3	true
71.5          	GAMG	2.243570e-01	9.789090e-04	3	true
72            	GAMG	2.315120e-01	2.239010e-03	2	true
72.5          	GAMG	2.271490e-01	1.105910e-03	2	true
73            	GAMG	2.166490e-01	9.114400e-04	3	true
73.5          	GAMG	2.299130e-01	2.084340e-03	2	true
74            	GAMG	2.379390e-01	1.636160e-03	2	true
74.5          	GAMG	2.379920e-01	1.464570e-03	2	true
75            	GAMG	2.436670e-01	1.903250e-03	2	true
75.5          	GAMG	2.598630e-01	2.266560e-03	2	true
76            	GAMG	2.835990e-01	2.044940e-03	2	true
76.5          	GAMG	2.900940e-01	2.283790e-03	2	true
77            	GAMG	3.053710e-01	2.480590e-03	2	true
77.5          	GAMG	3.206230e-01	2.578010e-03	2	true
78            	GAMG	3.476900e-01	2.573290e-03	2	true
78.5          	GAMG	3.711250e-01	2.886900e-03	2	true
79            	GAMG	3.680290e-01	2.245970e-03	2	true
79.5          	GAMG	3.847960e-01	2.375830e-03	2	true
80            	GAMG	4.016480e-01	2.286430e-03	2	true
80.5          	GAMG	4.191640e-01	2.688170e-03	2	true
81            	GAMG	4.338790e-01	2.439010e-03	2	true
81.5          	GAMG	4.561140e-01	4.305160e-03	2	true
82            	GAMG	4.538910e-01	4.021780e-03	2	true
82.5          	GAMG	4.561970e-01	2.101060e-03	2	true
83            	GAMG	4.307390e-01	2.541460e-03	2	true
83.5          	GAMG	4.477850e-01	3.062720e-03	2	true
84            	GAMG	4.474810e-01	2.187950e-03	2	true
84.5          	GAMG	4.753770e-01	1.906060e-03	3	true
85            	GAMG	4.477740e-01	3.060120e-03	2	true
85.5          	GAMG	4.187820e-01	3.469270e-03	2	true
86            	GAMG	4.535530e-01	4.109700e-03	2	true
86.5          	GAMG	4.411410e-01	2.475150e-03	2	true
87            	GAMG	4.552250e-01	4.472870e-03	2	true
87.5          	GAMG	4.226780e-01	2.011210e-03	2	true
88            	GAMG	4.418520e-01	2.922720e-03	2	true
88.5          	GAMG	4.633720e-01	3.012870e-03	2	true
89            	GAMG	5.156570e-01	4.679950e-03	2	true
89.5          	GAMG	4.785670e-01	2.335770e-03	2	true
90            	GAMG	4.972660e-01	2.106160e-03	2	true
90.5          	GAMG	5.388090e-01	3.760310e-03	2	true
91            	GAMG	5.137800e-01	1.663240e-03	2	true
91.5          	GAMG	5.258280e-01	2.499630e-03	2	true
92            	GAMG	5.453360e-01	2.010130e-03	2	true
92.5          	GAMG	5.041590e-01	1.836120e-03	2	true
93            	GAMG	5.049150e-01	2.892630e-03	2	true
93.5          	GAMG	5.083180e-01	2.281820e-03	2	true
94            	GAMG	5.352400e-01	2.747440e-03	2	true
94.5          	GAMG	5.580310e-01	2.706840e-03	2	true
95            	GAMG	5.405000e-01	2.852960e-03	2	true
95.5          	GAMG	5.315260e-01	2.508480e-03	2	true
96            	GAMG	5.418070e-01	2.607890e-03	2	true
96.5          	GAMG	5.397480e-01	2.099020e-03	2	true
97            	GAMG	5.122120e-01	3.844130e-03	2	true
97.5          	GAMG	5.381160e-01	2.104930e-03	2	true
98            	GAMG	5.145630e-01	2.506530e-03	2	true
98.5          	GAMG	5.237760e-01	1.765150e-03	2	true
99            	GAMG	5.781440e-01	2.782170e-03	2	true
99.5          	GAMG	5.966120e-01	1.445420e-03	2	true
100           	GAMG	5.668570e-01	2.208890e-03	2	true
100.5         	GAMG	5.461900e-01	3.262390e-03	2	true
101           	GAMG	5.540680e-01	2.406690e-03	2	true
101.5         	GAMG	5.796080e-01	1.815580e-03	2	true
102           	GAMG	5.665920e-01	1.896150e-03	2	true
102.5         	GAMG	5.708110e-01	2.672660e-03	2	true
103           	GAMG	5.762390e-01	1.769260e-03	2	true
103.5         	GAMG	5.370080e-01	1.461690e-03	2	true
104           	GAMG	5.601040e-01	1.185490e-03	2	true
104.5         	GAMG	5.912510e-01	1.591220e-03	2	true
105           	GAMG	5.739470e-01	2.577150e-03	2	true
105.5         	GAMG	5.175780e-01	2.093360e-03	2	true
106           	GAMG	5.377660e-01	2.556300e-03	2	true
106.5         	GAMG	5.438650e-01	2.574780e-03	2	true
107           	GAMG	5.546470e-01	2.036140e-03	2	true
107.5         	GAMG	5.444700e-01	1.975490e-03	2	true
108           	GAMG	5.455330e-01	3.238540e-03	2	true
108.5         	GAMG	5.727820e-01	3.382890e-03	2	true
109           	GAMG	5.719500e-01	2.392380e-03	2	true
109.5         	GAMG	5.838990e-01	3.316270e-03	2	true
110           	GAMG	5.666010e-01	2.205120e-03	2	true
110.5         	GAMG	5.432140e-01	3.327770e-03	2	true
111           	GAMG	5.761270e-01	2.819140e-03	2	true
111.5         	GAMG	5.706520e-01	1.996860e-03	2	true
112           	GAMG	5.483870e-01	2.369000e-03	2	true
112.5         	GAMG	5.202340e-01	2.749390e-03	2	true
113           	GAMG	5.398440e-01	1.901270e-03	2	true
113.5         	GAMG	5.734710e-01	2.605650e-03	2	true
114           	GAMG	5.310860e-01	2.285810e-03	2	true
114.5         	GAMG	5.061120e-01	1.788060e-03	2	true
115           	GAMG	5.209530e-01	2.117170e-03	2	true
115.5         	GAMG	5.959610e-01	1.873550e-03	2	true
116           	GAMG	5.451430e-01	2.172460e-03	2	true
116.5         	GAMG	5.203200e-01	2.219180e-03	2	true
117           	GAMG	5.512580e-01	2.333190e-03	2	true
117.5         	GAMG	5.301570e-01	2.091140e-03	2	true
118           	GAMG	5.303260e-01	2.203280e-03	2	true
118.5         	GAMG	5.140170e-01	2.375800e-03	2	true
119           	GAMG	5.213450e-01	2.060510e-03	2	true
119.5         	GAMG	4.937920e-01	2.575580e-03	2	true
120           	GAMG	5.196030e-01	1.944280e-03	2	true
120.5         	GAMG	5.362750e-01	2.267810e-03	2	true
121           	GAMG	5.081520e-01	2.459450e-03	2	true
121.5         	GAMG	5.243010e-01	1.941390e-03	2	true
122           	GAMG	5.199170e-01	1.677090e-03	2	true
122.5         	GAMG	5.393220e-01	1.571720e-03	2	true
123           	GAMG	5.498030e-01	2.003330e-03	2	true
123.5         	GAMG	5.259190e-01	2.346250e-03	2	true
124           	GAMG	5.345740e-01	1.920380e-03	2	true
124.5         	GAMG	5.279480e-01	1.868060e-03	2	true
125           	GAMG	5.207150e-01	2.306440e-03	2	true
125.5         	GAMG	5.292090e-01	2.013410e-03	2	true
126           	GAMG	5.148090e-01	1.888160e-03	2	true
126.5         	GAMG	4.833590e-01	1.429210e-03	2	true
127           	GAMG	4.904990e-01	2.531900e-03	2	true
127.5         	GAMG	4.897280e-01	1.986700e-03	2	true
128           	GAMG	5.026100e-01	2.530810e-03	2	true
128.5         	GAMG	5.181320e-01	1.742950e-03	2	true
129           	GAMG	5.548410e-01	2.237410e-03	2	true
129.5         	GAMG	5.055500e-01	1.634330e-03	2	true
130           	GAMG	4.783460e-01	1.987060e-03	2	true
130.5         	GAMG	5.136010e-01	1.537250e-03	2	true
131           	GAMG	5.214250e-01	2.094360e-03	2	true
131.5         	GAMG	4.927200e-01	1.559730e-03	2	true
132           	GAMG	4.878070e-01	1.505030e-03	2	true
132.5         	GAMG	5.494360e-01	1.526450e-03	2	true
133           	GAMG	5.150090e-01	1.610630e-03	2	true
133.5         	GAMG	5.695050e-01	1.619830e-03	2	true
134           	GAMG	5.252210e-01	2.002840e-03	2	true
134.5         	GAMG	5.560930e-01	2.183260e-03	2	true
135           	GAMG	5.313080e-01	1.723190e-03	2	true
135.5         	GAMG	5.413230e-01	1.827430e-03	2	true
136           	GAMG	5.527100e-01	1.845400e-03	2	true
136.5         	GAMG	5.406730e-01	1.348560e-03	2	true
137           	GAMG	5.557880e-01	1.768200e-03	2	true
137.5         	GAMG	5.572930e-01	2.437630e-03	2	true
138           	GAMG	5.700030e-01	1.505860e-03	2	true
138.5         	GAMG	5.601970e-01	2.017760e-03	2	true
139           	GAMG	5.629740e-01	1.609790e-03	2	true
139.5         	GAMG	5.384600e-01	2.987250e-03	2	true
140           	GAMG	5.374270e-01	1.841320e-03	2	true
140.5         	GAMG	5.332440e-01	1.706490e-03	2	true
141           	GAMG	5.238860e-01	1.801230e-03	2	true
141.5         	GAMG	5.125850e-01	1.595730e-03	2	true
142           	GAMG	5.304970e-01	2.054840e-03	2	true
142.5         	GAMG	4.805580e-01	2.310810e-03	2	true
143           	GAMG	5.602730e-01	2.590640e-03	2	true
143.5         	GAMG	5.389110e-01	2.453790e-03	2	true
144           	GAMG	5.075790e-01	2.505910e-03	2	true
144.5         	GAMG	5.158740e-01	1.784990e-03	2	true
145           	GAMG	5.241280e-01	1.875100e-03	2	true
145.5         	GAMG	5.261950e-01	1.761520e-03	2	true
146           	GAMG	5.408270e-01	1.843420e-03	2	true
146.5         	GAMG	5.242410e-01	1.803770e-03	2	true
147           	GAMG	4.474770e-01	1.425430e-03	2	true
147.5         	GAMG	5.525870e-01	2.007870e-03	2	true
148           	GAMG	5.232680e-01	1.722660e-03	2	true
148.5         	GAMG	5.059620e-01	1.800130e-03	2	true
149           	GAMG	5.219870e-01	1.629220e-03	2	true
149.5         	GAMG	5.654000e-01	1.873550e-03	2	true
150           	GAMG	5.582400e-01	1.568950e-03	2	true
150.5         	GAMG	5.775820e-01	1.765840e-03	2	true
151           	GAMG	5.373610e-01	1.928710e-03	2	true
151.5         	GAMG	3.166560e-01	9.786360e-04	2	true
152           	GAMG	5.378650e-01	2.213010e-03	2	true
152.5         	GAMG	5.519430e-01	1.956540e-03	2	true
153           	GAMG	5.448300e-01	1.917800e-03	2	true
153.5         	GAMG	5.144180e-01	1.763170e-03	2	true
154           	GAMG	5.519270e-01	1.799780e-03	2	true
154.5         	GAMG	5.326690e-01	1.552530e-03	2	true
155           	GAMG	4.859590e-01	2.054960e-03	2	true
155.5         	GAMG	5.133610e-01	1.156840e-03	2	true
156           	GAMG	5.139970e-01	1.882320e-03	2	true
156.5         	GAMG	5.637730e-01	1.529770e-03	2	true
157           	GAMG	5.183580e-01	2.104820e-03	2	true
157.5         	GAMG	5.706550e-01	2.018150e-03	2	true
158           	GAMG	5.483150e-01	1.862420e-03	2	true
158.5         	GAMG	5.594220e-01	1.722250e-03	2	true
159           	GAMG	5.568800e-01	1.969240e-03	2	true
159.5         	GAMG	5.550740e-01	1.937800e-03	2	true
160           	GAMG	5.547910e-01	2.326840e-03	2	true
160.5         	GAMG	5.373170e-01	2.219850e-03	2	true
161           	GAMG	5.068520e-01	2.523530e-03	2	true
161.5         	GAMG	5.307770e-01	2.177000e-03	2	true
162           	GAMG	5.112180e-01	1.453690e-03	2	true
162.5         	GAMG	5.316670e-01	1.903490e-03	2	true
163           	GAMG	5.594500e-01	1.638910e-03	2	true
163.5         	GAMG	5.369040e-01	2.225520e-03	2	true
164           	GAMG	5.498340e-01	1.312660e-03	2	true
164.5         	GAMG	5.831020e-01	1.710660e-03	2	true
165           	GAMG	5.422240e-01	2.913440e-03	2	true
165.5         	GAMG	5.714210e-01	2.820830e-03	2	true
166           	GAMG	5.753980e-01	2.496340e-03	2	true
166.5         	GAMG	5.349760e-01	2.997240e-03	2	true
167           	GAMG	5.669170e-01	2.521640e-03	2	true
167.5         	GAMG	5.388550e-01	2.261800e-03	2	true
168           	GAMG	5.458910e-01	2.210570e-03	2	true
168.5         	GAMG	5.263790e-01	2.500080e-03	2	true
169           	GAMG	5.118240e-01	1.822400e-03	2	true
169.5         	GAMG	5.301270e-01	1.754080e-03	2	true
170           	GAMG	4.834260e-01	1.586170e-03	2	true
170.5         	GAMG	4.973990e-01	1.911110e-03	2	true
171           	GAMG	5.109720e-01	2.283610e-03	2	true
171.5         	GAMG	5.363270e-01	2.194930e-03	2	true
172           	GAMG	5.304810e-01	2.194780e-03	2	true
172.5         	GAMG	5.286270e-01	2.693530e-03	2	true
173           	GAMG	5.077620e-01	2.667080e-03	2	true
173.5         	GAMG	4.884910e-01	1.936420e-03	2	true
174           	GAMG	5.459260e-01	2.242230e-03	2	true
174.5         	GAMG	5.945860e-01	2.615920e-03	2	true
175           	GAMG	5.779860e-01	2.896590e-03	2	true
175.5         	GAMG	6.030890e-01	3.119320e-03	2	true
176           	GAMG	5.955100e-01	2.393470e-03	2	true
176.5         	GAMG	5.924520e-01	2.607430e-03	2	true
177           	GAMG	5.650810e-01	3.531360e-03	2	true
177.5         	GAMG	5.493010e-01	3.056000e-03	2	true
178           	GAMG	5.709960e-01	2.305540e-03	2	true
178.5         	GAMG	5.415370e-01	2.446110e-03	2	true
179           	GAMG	5.449920e-01	2.547340e-03	2	true
179.5         	GAMG	5.668910e-01	2.577590e-03	2	true
180           	GAMG	5.742250e-01	1.981570e-03	2	true
180.5         	GAMG	5.198510e-01	2.399930e-03	2	true
181           	GAMG	5.439640e-01	2.123860e-03	2	true
181.5         	GAMG	5.680050e-01	1.970000e-03	2	true
182           	GAMG	5.835700e-01	3.103280e-03	2	true
182.5         	GAMG	6.151640e-01	3.138300e-03	2	true
183           	GAMG	5.711880e-01	2.842670e-03	2	true
183.5         	GAMG	5.783960e-01	2.964850e-03	2	true
184           	GAMG	5.731560e-01	3.650980e-03	2	true
184.5         	GAMG	5.854860e-01	2.453560e-03	2	true
185           	GAMG	5.443490e-01	3.495030e-03	2	true
185.5         	GAMG	5.551330e-01	3.210610e-03	2	true
186           	GAMG	5.951910e-01	4.557230e-03	2	true
186.5         	GAMG	5.987650e-01	2.839400e-03	2	true
187           	GAMG	5.820820e-01	2.766720e-03	2	true
187.5         	GAMG	5.404560e-01	2.879140e-03	2	true
188           	GAMG	6.213410e-01	3.293790e-03	2	true
188.5         	GAMG	5.956050e-01	2.018310e-03	2	true
189           	GAMG	5.284130e-01	2.714360e-03	2	true
189.5         	GAMG	5.594610e-01	2.534650e-03	2	true
190           	GAMG	5.164760e-01	1.900470e-03	2	true
190.5         	GAMG	5.433140e-01	1.973010e-03	2	true
191           	GAMG	5.308760e-01	2.099520e-03	2	true
191.5         	GAMG	5.709410e-01	2.796490e-03	2	true
192           	GAMG	5.137670e-01	2.721260e-03	2	true
192.5         	GAMG	5.366610e-01	2.153390e-03	2	true
193           	GAMG	5.669440e-01	1.823170e-03	2	true
193.5         	GAMG	5.475880e-01	2.133740e-03	2	true
194           	GAMG	5.568770e-01	2.332280e-03	2	true
194.5         	GAMG	5.421980e-01	2.536340e-03	2	true
195           	GAMG	5.593560e-01	2.204240e-03	2	true
195.5         	GAMG	5.603320e-01	2.384720e-03	2	true
196           	GAMG	5.860940e-01	1.770110e-03	2	true
196.5         	GAMG	5.928960e-01	1.992410e-03	2	true
197           	GAMG	5.878960e-01	2.093530e-03	2	true
197.5         	GAMG	5.503470e-01	2.219610e-03	2	true
198           	GAMG	5.622310e-01	1.860010e-03	2	true
198.5         	GAMG	5.357520e-01	2.220480e-03	2	true
199           	GAMG	5.606440e-01	2.208760e-03	2	true
199.5         	GAMG	5.466570e-01	2.368040e-03	2	true
200           	GAMG	5.424120e-01	2.404500e-03	2	true
200.5         	GAMG	5.279760e-01	2.514280e-03	2	true
201           	GAMG	5.516840e-01	2.602120e-03	2	true
201.5         	GAMG	5.303200e-01	2.106700e-03	2	true
202           	GAMG	5.801290e-01	3.000570e-03	2	true
202.5         	GAMG	5.527830e-01	2.334390e-03	2	true
203           	GAMG	5.637790e-01	2.255590e-03	2	true
203.5         	GAMG	5.606990e-01	1.856170e-03	2	true
204           	GAMG	5.298140e-01	2.333480e-03	2	true
204.5         	GAMG	5.370800e-01	2.234700e-03	2	true
205           	GAMG	5.403920e-01	2.129900e-03	2	true
205.5         	GAMG	5.618350e-01	2.184690e-03	2	true
206           	GAMG	5.364170e-01	2.482700e-03	2	true
206.5         	GAMG	5.320040e-01	2.542600e-03	2	true
207           	GAMG	5.587450e-01	2.403050e-03	2	true
207.5         	GAMG	5.314140e-01	2.746230e-03	2	true
208           	GAMG	5.491300e-01	1.917010e-03	2	true
208.5         	GAMG	5.472310e-01	2.347100e-03	2	true
209           	GAMG	5.180610e-01	2.000520e-03	2	true
209.5         	GAMG	5.399050e-01	2.209480e-03	2	true
210           	GAMG	5.450160e-01	2.383980e-03	2	true
210.5         	GAMG	5.749080e-01	2.324390e-03	2	true
211           	GAMG	5.886940e-01	2.749630e-03	2	true
211.5         	GAMG	5.673290e-01	1.944510e-03	2	true
212           	GAMG	5.738540e-01	3.071270e-03	2	true
212.5         	GAMG	5.784750e-01	2.618340e-03	2	true
213           	GAMG	6.076950e-01	2.739670e-03	2	true
213.5         	GAMG	5.569590e-01	3.235760e-03	2	true
214           	GAMG	5.136570e-01	2.715800e-03	2	true
214.5         	GAMG	5.387040e-01	3.476040e-03	2	true
215           	GAMG	5.896880e-01	2.569540e-03	2	true
215.5         	GAMG	5.800410e-01	2.682920e-03	2	true
216           	GAMG	5.262450e-01	2.662090e-03	2	true
216.5         	GAMG	5.189190e-01	2.614510e-03	2	true
217           	GAMG	5.785080e-01	2.539270e-03	2	true
217.5         	GAMG	5.720490e-01	2.116540e-03	2	true
218           	GAMG	5.459530e-01	1.988330e-03	2	true
218.5         	GAMG	5.573520e-01	2.621790e-03	2	true
219           	GAMG	5.577700e-01	1.794590e-03	2	true
219.5         	GAMG	5.312930e-01	1.947080e-03	2	true
220           	GAMG	5.790920e-01	2.489670e-03	2	true
220.5         	GAMG	5.365290e-01	2.872670e-03	2	true
221           	GAMG	5.756850e-01	2.494310e-03	2	true
221.5         	GAMG	5.342430e-01	2.579430e-03	2	true
222           	GAMG	5.716890e-01	2.347620e-03	2	true
222.5         	GAMG	6.032120e-01	2.510770e-03	2	true
223           	GAMG	5.743490e-01	2.578940e-03	2	true
223.5         	GAMG	6.141940e-01	3.194580e-03	2	true
224           	GAMG	6.091560e-01	2.920210e-03	2	true
224.5         	GAMG	5.925790e-01	3.273470e-03	2	true
225           	GAMG	5.780280e-01	2.746450e-03	2	true
225.5         	GAMG	5.739070e-01	3.047570e-03	2	true
226           	GAMG	5.882870e-01	2.605030e-03	2	true
226.5         	GAMG	5.781040e-01	2.902950e-03	2	true
227           	GAMG	5.645480e-01	2.111820e-03	2	true
227.5         	GAMG	6.015260e-01	2.518230e-03	2	true
228           	GAMG	6.067450e-01	2.321220e-03	2	true
228.5         	GAMG	5.698130e-01	2.725750e-03	2	true
229           	GAMG	5.908060e-01	3.153310e-03	2	true
229.5         	GAMG	5.508790e-01	2.929460e-03	2	true
230           	GAMG	5.363310e-01	2.682820e-03	2	true
230.5         	GAMG	5.297030e-01	2.230810e-03	2	true
231           	GAMG	5.263950e-01	3.240950e-03	2	true
231.5         	GAMG	5.676400e-01	2.574780e-03	2	true
232           	GAMG	5.827320e-01	2.716950e-03	2	true
232.5         	GAMG	5.347480e-01	3.192130e-03	2	true
233           	GAMG	5.610590e-01	2.649240e-03	2	true
233.5         	GAMG	5.270320e-01	3.064500e-03	2	true
234           	GAMG	5.336260e-01	2.009430e-03	2	true
234.5         	GAMG	5.739070e-01	2.563600e-03	2	true
235           	GAMG	5.905000e-01	2.119710e-03	2	true
235.5         	GAMG	5.875510e-01	2.944420e-03	2	true
236           	GAMG	5.910840e-01	2.793180e-03	2	true
236.5         	GAMG	5.374530e-01	2.560670e-03	2	true
237           	GAMG	5.204990e-01	2.522730e-03	2	true
237.5         	GAMG	5.609620e-01	1.787340e-03	2	true
238           	GAMG	5.772380e-01	2.385350e-03	2	true
238.5         	GAMG	5.305130e-01	2.448320e-03	2	true
239           	GAMG	5.018740e-01	2.486570e-03	2	true
239.5         	GAMG	5.524560e-01	2.308840e-03	2	true
240           	GAMG	5.817470e-01	1.832410e-03	2	true
240.5         	GAMG	5.500460e-01	2.524710e-03	2	true
241           	GAMG	5.477160e-01	2.517260e-03	2	true
241.5         	GAMG	5.561780e-01	2.367080e-03	2	true
242           	GAMG	5.564230e-01	2.695880e-03	2	true
242.5         	GAMG	5.191040e-01	2.070330e-03	2	true
243           	GAMG	5.460860e-01	2.781350e-03	2	true
243.5         	GAMG	5.153650e-01	2.711490e-03	2	true
244           	GAMG	5.524500e-01	2.751920e-03	2	true
244.5         	GAMG	5.427830e-01	1.889770e-03	2	true
245           	GAMG	5.525240e-01	2.942410e-03	2	true
245.5         	GAMG	5.766290e-01	2.737390e-03	2	true
246           	GAMG	5.535900e-01	2.015390e-03	2	true
246.5         	GAMG	5.538680e-01	1.624620e-03	2	true
247           	GAMG	5.620510e-01	2.146580e-03	2	true
247.5         	GAMG	5.862550e-01	2.492080e-03	2	true
248           	GAMG	5.449900e-01	2.517740e-03	2	true
248.5         	GAMG	5.526520e-01	2.792420e-03	2	true
249           	GAMG	5.169780e-01	1.861950e-03	2	true
249.5         	GAMG	5.508760e-01	1.920460e-03	2	true
250           	GAMG	5.385980e-01	2.146670e-03	2	true
250.5         	GAMG	5.104700e-01	1.981140e-03	2	true
251           	GAMG	5.105830e-01	1.971880e-03	2	true
251.5         	GAMG	5.259460e-01	1.845250e-03	2	true
252           	GAMG	5.178690e-01	1.909490e-03	2	true
252.5         	GAMG	5.068770e-01	1.604620e-03	2	true
253           	GAMG	5.171070e-01	1.583820e-03	2	true
253.5         	GAMG	5.313500e-01	1.589560e-03	2	true
254           	GAMG	5.195230e-01	1.274520e-03	2	true
254.5         	GAMG	5.199000e-01	2.016490e-03	2	true
255           	GAMG	5.003710e-01	2.088490e-03	2	true
255.5         	GAMG	5.696600e-01	1.577880e-03	2	true
256           	GAMG	5.400400e-01	2.152300e-03	2	true
256.5         	GAMG	5.192640e-01	2.067980e-03	2	true
257           	GAMG	5.189620e-01	1.703370e-03	2	true
257.5         	GAMG	5.278330e-01	1.512370e-03	2	true
258           	GAMG	5.507780e-01	1.321080e-03	2	true
258.5         	GAMG	5.414630e-01	1.812250e-03	2	true
259           	GAMG	5.477970e-01	1.893440e-03	2	true
259.5         	GAMG	5.442500e-01	2.006920e-03	2	true
260           	GAMG	5.276410e-01	1.948150e-03	2	true
260.5         	GAMG	5.450370e-01	1.789860e-03	2	true
261           	GAMG	5.330740e-01	2.354720e-03	2	true
261.5         	GAMG	5.488970e-01	2.256120e-03	2	true
262           	GAMG	5.293120e-01	1.698870e-03	2	true
262.5         	GAMG	5.333270e-01	1.616560e-03	2	true
263           	GAMG	5.463650e-01	1.817510e-03	2	true
263.5         	GAMG	5.445710e-01	2.550030e-03	2	true
264           	GAMG	5.151330e-01	1.638080e-03	2	true
264.5         	GAMG	5.119780e-01	1.542450e-03	2	true
265           	GAMG	5.329370e-01	1.829410e-03	2	true
265.5         	GAMG	5.583580e-01	1.429520e-03	2	true
266           	GAMG	5.418190e-01	2.171250e-03	2	true
266.5         	GAMG	4.892210e-01	1.861380e-03	2	true
267           	GAMG	4.972130e-01	1.512990e-03	2	true
267.5         	GAMG	5.399240e-01	2.473930e-03	2	true
268           	GAMG	5.159730e-01	2.161370e-03	2	true
268.5         	GAMG	5.538750e-01	1.774170e-03	2	true
269           	GAMG	5.410070e-01	2.616570e-03	2	true
269.5         	GAMG	5.202270e-01	2.137940e-03	2	true
270           	GAMG	5.143260e-01	1.960770e-03	2	true
270.5         	GAMG	5.287970e-01	1.791040e-03	2	true
271           	GAMG	5.296540e-01	1.482750e-03	2	true
271.5         	GAMG	5.438120e-01	1.850440e-03	2	true
272           	GAMG	5.672370e-01	2.302880e-03	2	true
272.5         	GAMG	6.076420e-01	2.365890e-03	2	true
273           	GAMG	5.995180e-01	1.843250e-03	2	true
273.5         	GAMG	5.760390e-01	2.154310e-03	2	true
274           	GAMG	5.733470e-01	1.666780e-03	2	true
274.5         	GAMG	5.757780e-01	2.001720e-03	2	true
275           	GAMG	6.122300e-01	2.705980e-03	2	true
275.5         	GAMG	5.889440e-01	2.387630e-03	2	true
276           	GAMG	6.193350e-01	1.340640e-03	2	true
276.5         	GAMG	5.486620e-01	2.294070e-03	2	true
277           	GAMG	5.484340e-01	1.581510e-03	2	true
277.5         	GAMG	5.295390e-01	1.229100e-03	2	true
278           	GAMG	5.120120e-01	2.082540e-03	2	true
278.5         	GAMG	4.961820e-01	2.155150e-03	2	true
279           	GAMG	4.882240e-01	1.754700e-03	2	true
279.5         	GAMG	5.457540e-01	2.459320e-03	2	true
280           	GAMG	5.410050e-01	2.337240e-03	2	true
280.5         	GAMG	5.413720e-01	2.385320e-03	2	true
281           	GAMG	5.428290e-01	1.539980e-03	2	true
281.5         	GAMG	5.161880e-01	2.875360e-03	2	true